# N2H4_Pt_9-16-16

738 atoms
3 atom types

0.0 11.77 xlo xhi

0.0 11.77 ylo yhi

0.0 20.32 zlo zhi

Masses

1
2
3

Atoms

